Program Version,EnergyPlus, Version 8.8.0-7c3bbe4830, YMD=2020.09.17 14:22
1,5,Environment Title[],Latitude[deg],Longitude[deg],Time Zone[],Elevation[m]
2,6,Day of Simulation[],Month[],Day of Month[],DST Indicator[1=yes 0=no],Hour[],StartMinute[],EndMinute[],DayType
3,3,Cumulative Day of Simulation[],Month[],Day of Month[],DST Indicator[1=yes 0=no],DayType  ! When Daily Report Variables Requested
4,2,Cumulative Days of Simulation[],Month[]  ! When Monthly Report Variables Requested
5,1,Cumulative Days of Simulation[] ! When Run Period Report Variables Requested
98,1,ZONE_0_SRF_0,Surface Inside Face Temperature [C] !Hourly
99,1,ZONE_0_SRF_0_GLZ_0_0B10DB01F72D42B1AAB0,Surface Inside Face Temperature [C] !Hourly
100,1,ZONE_0_SRF_1,Surface Inside Face Temperature [C] !Hourly
101,1,ZONE_0_SRF_2,Surface Inside Face Temperature [C] !Hourly
102,1,ZONE_0_SRF_3,Surface Inside Face Temperature [C] !Hourly
103,1,ZONE_0_SRF_4,Surface Inside Face Temperature [C] !Hourly
104,1,ZONE_0_SRF_5,Surface Inside Face Temperature [C] !Hourly
End of Data Dictionary
1,RUN PERIOD 1,  41.98, -87.92,  -6.00, 201.00
2,1,12,15, 0, 1, 0.00,60.00,Friday
98,17.9235610915436
99,3.7348498441031858
100,18.38174945591464
101,18.283224889141267
102,18.38174945591464
103,17.7531203214881
104,18.247979585612627
2,1,12,15, 0, 2, 0.00,60.00,Friday
98,17.862168136688884
99,2.8603611330877927
100,18.2790378537629
101,18.17651391539621
102,18.2790378537629
103,17.644739459643387
104,18.132626432750216
2,1,12,15, 0, 3, 0.00,60.00,Friday
98,17.804838849718565
99,2.6400054660111986
100,18.195672208369176
101,18.091214711502489
102,18.195672208369179
103,17.554966091687168
104,18.065451939487106
2,1,12,15, 0, 4, 0.00,60.00,Friday
98,17.7635433099415
99,2.456295118519847
100,18.14308113713417
101,18.03786650155794
102,18.143081137134165
103,17.481861951837588
104,18.01544588256108
2,1,12,15, 0, 5, 0.00,60.00,Friday
98,17.722057715088778
99,2.2287840937172804
100,18.0890484235422
101,17.982636440188313
102,18.089048423542207
103,17.407309877759944
104,17.960572070798599
2,1,12,15, 0, 6, 0.00,60.00,Friday
98,17.691805302962075
99,2.3430287046237106
100,18.059798276955339
101,17.953318174539424
102,18.059798276955339
103,17.353541762447944
104,17.93954475815184
2,1,12,15, 0, 7, 0.00,60.00,Friday
98,17.676487346213038
99,2.6021927966007185
100,18.057924731892617
101,17.95221518268181
102,18.05792473189261
103,17.320877946938187
104,17.942323855604348
2,1,12,15, 0, 8, 0.00,60.00,Friday
98,17.730823457226639
99,2.7177603853849918
100,18.150909945087159
101,18.04803888153486
102,18.150909945087159
103,17.376867534686985
104,18.054739938088856
2,1,12,15, 0, 9, 0.00,60.00,Friday
98,17.988254174748847
99,2.5588694529200119
100,18.50511308831647
101,18.408873095279284
102,18.50511308831647
103,17.64741586273922
104,18.390507123004519
2,1,12,15, 0,10, 0.00,60.00,Friday
98,18.339712185772887
99,3.272949565317598
100,18.98590035456016
101,18.89650409669915
102,18.98590035456017
103,18.020141620047565
104,18.809769695982309
2,1,12,15, 0,11, 0.00,60.00,Friday
98,18.67659758427577
99,4.183885332517558
100,19.45255644460042
101,19.368440120335209
102,19.45255644460042
103,18.39841416681697
104,19.185563402052357
2,1,12,15, 0,12, 0.00,60.00,Friday
98,18.929738556355294
99,4.854490047909366
100,19.79427804458888
101,19.712216587475436
102,19.79427804458889
103,18.716075860430075
104,19.454888126253889
2,1,12,15, 0,13, 0.00,60.00,Friday
98,19.067884797662388
99,5.298671809383592
100,19.972980848711065
101,19.89067777300181
102,19.972980848711076
103,18.934512385627703
104,19.58809627663116
2,1,12,15, 0,14, 0.00,60.00,Friday
98,19.113207990760136
99,5.555803265260958
100,20.019608663914768
101,19.93631561865942
102,20.019608663914768
103,19.070289900073275
104,19.63323340644141
2,1,12,15, 0,15, 0.00,60.00,Friday
98,19.07234557691532
99,5.745011027284126
100,19.947581448703404
101,19.862632247413573
102,19.947581448703404
103,19.10766966785089
104,19.57098242593605
2,1,12,15, 0,16, 0.00,60.00,Friday
98,18.841830698599357
99,5.590009751325596
100,19.617013607653737
101,19.52629554152301
102,19.617013607653737
103,18.925547727052707
104,19.256652687533039
2,1,12,15, 0,17, 0.00,60.00,Friday
98,18.49755717884022
99,4.725166053539738
100,19.127458346209964
101,19.029950565759767
102,19.127458346209964
103,18.610524844315369
104,18.84189999452636
2,1,12,15, 0,18, 0.00,60.00,Friday
98,18.25968307636354
99,3.987564226431753
100,18.784303002955594
101,18.684987170869545
102,18.784303002955594
103,18.384223236164
104,18.61685230068729
2,1,12,15, 0,19, 0.00,60.00,Friday
98,18.133733589283258
99,3.7469707383472348
100,18.604911334514389
101,18.506155228681825
102,18.604911334514389
103,18.22604075482818
104,18.4930354020573
2,1,12,15, 0,20, 0.00,60.00,Friday
98,18.064735898920117
99,4.053836387717695
100,18.52345506451932
101,18.426310324802345
102,18.52345506451932
103,18.113869130216714
104,18.438367181626217
2,1,12,15, 0,21, 0.00,60.00,Friday
98,18.02802401336952
99,4.188140286245243
100,18.49101868835068
101,18.395022781297415
102,18.49101868835068
103,18.027350015599088
104,18.401047727965588
2,1,12,15, 0,22, 0.00,60.00,Friday
98,17.997049557140668
99,4.204305942121512
100,18.460110248874149
101,18.363895361688134
102,18.460110248874149
103,17.94661664163989
104,18.362419426669786
2,1,12,15, 0,23, 0.00,60.00,Friday
98,17.974978519940838
99,4.342001492432284
100,18.444564485356293
101,18.348448666293117
102,18.444564485356293
103,17.884573992347158
104,18.343394852074046
2,1,12,15, 0,24, 0.00,60.00,Friday
98,17.956893220621489
99,4.388478734705235
100,18.432172199216333
101,18.33593731154643
102,18.432172199216333
103,17.831129231438096
104,18.32453999574275
2,2,12,16, 0, 1, 0.00,60.00,Saturday
98,17.934441315587063
99,4.1974039529004119
100,18.406699452806636
101,18.30954243837266
102,18.406699452806636
103,17.773928687210746
104,18.287972329916724
2,2,12,16, 0, 2, 0.00,60.00,Saturday
98,17.90834471921962
99,4.086794010147552
100,18.37419314062839
101,18.27605303937057
102,18.37419314062839
103,17.718912884920358
104,18.254600366466538
2,2,12,16, 0, 3, 0.00,60.00,Saturday
98,17.8684641956639
99,3.2623665375962029
100,18.30838058291339
101,18.2074971111923
102,18.30838058291339
103,17.638363437128296
104,18.163840027256759
2,2,12,16, 0, 4, 0.00,60.00,Saturday
98,17.801098934716
99,2.39497770750854
100,18.194041330989938
101,18.08899647644879
102,18.194041330989938
103,17.52839058160681
104,18.044555633589103
2,2,12,16, 0, 5, 0.00,60.00,Saturday
98,17.735939470247599
99,1.7856382892500354
100,18.091861991545796
101,17.98402113660601
102,18.091861991545796
103,17.425472408729705
104,17.94667042985331
2,2,12,16, 0, 6, 0.00,60.00,Saturday
98,17.679729287716464
99,1.6578198746664726
100,18.014943899305036
101,17.90579967217911
102,18.014943899305036
103,17.338784015455415
104,17.88558297568835
2,2,12,16, 0, 7, 0.00,60.00,Saturday
98,17.637476244677626
99,1.3688710635770083
100,17.96208432063599
101,17.852071180335448
102,17.96208432063599
103,17.26273712671163
104,17.828267546892687
2,2,12,16, 0, 8, 0.00,60.00,Saturday
98,17.65649840900871
99,1.0607966461469876
100,17.992046623337506
101,17.882868225407444
102,17.992046623337506
103,17.265697505345189
104,17.87839664682015
2,2,12,16, 0, 9, 0.00,60.00,Saturday
98,17.820605994706928
99,1.5889436726430784
100,18.234286959928555
101,18.13072976931198
102,18.234286959928555
103,17.43330677434704
104,18.11920223065614
2,2,12,16, 0,10, 0.00,60.00,Saturday
98,18.075736504745806
99,2.8925887264971288
100,18.618249422286956
101,18.522814474138383
102,18.618249422286956
103,17.71726953210849
104,18.483047824237234
2,2,12,16, 0,11, 0.00,60.00,Saturday
98,18.469054252783644
99,4.2684192494983039
100,19.189461319499207
101,19.104687176793367
102,19.189461319499207
103,18.168853312654507
104,19.009895923982638
2,2,12,16, 0,12, 0.00,60.00,Saturday
98,18.81942552407619
99,4.796683679265375
100,19.671338820528758
101,19.590980807004397
102,19.671338820528758
103,18.567897355005145
104,19.378221716817995
2,2,12,16, 0,13, 0.00,60.00,Saturday
98,19.16780984290028
99,5.014011185034273
100,20.125066160753975
101,20.04752989246514
102,20.125066160753975
103,18.991763248930643
104,19.749774530137775
2,2,12,16, 0,14, 0.00,60.00,Saturday
98,19.16738926290676
99,5.307230651833464
100,20.09898543906402
101,20.01421820385254
102,20.098985439064025
103,19.04795057555938
104,19.6222769012877
2,2,12,16, 0,15, 0.00,60.00,Saturday
98,19.034877887807086
99,5.496291400926282
100,19.90867065807667
101,19.820373504513339
102,19.90867065807667
103,19.027272249815068
104,19.495048928397286
2,2,12,16, 0,16, 0.00,60.00,Saturday
98,18.74012830556725
99,5.395387519281475
100,19.493524286954295
101,19.399341963589149
102,19.493524286954295
103,18.798567368675714
104,19.13222551412026
2,2,12,16, 0,17, 0.00,60.00,Saturday
98,18.429940736576627
99,5.266818538682959
100,19.071259164899318
101,18.97472625659113
102,19.071259164899318
103,18.545542761730638
104,18.833962719875488
2,2,12,16, 0,18, 0.00,60.00,Saturday
98,18.245093482728035
99,4.659030008149159
100,18.809492530796644
101,18.713183088289254
102,18.80949253079664
103,18.369681344055406
104,18.659385966818037
2,2,12,16, 0,19, 0.00,60.00,Saturday
98,18.135418595999693
99,4.209164716492372
100,18.64515678233722
101,18.548455780715036
102,18.64515678233722
103,18.223132650424604
104,18.531184674820904
2,2,12,16, 0,20, 0.00,60.00,Saturday
98,18.078783059760928
99,4.65258807024848
100,18.579550575674046
101,18.48456981739069
102,18.57955057567405
103,18.131435810397666
104,18.497327895309107
2,2,12,16, 0,21, 0.00,60.00,Saturday
98,18.06640507312503
99,5.311652668966038
100,18.590589632787674
101,18.498522223699117
102,18.59058963278768
103,18.087239867154844
104,18.51784824179481
2,2,12,16, 0,22, 0.00,60.00,Saturday
98,18.068586002698785
99,5.589401988607601
100,18.61351055142404
101,18.522851380621863
102,18.613510551424036
103,18.053265318828627
104,18.527760995544214
2,2,12,16, 0,23, 0.00,60.00,Saturday
98,18.059759951326208
99,5.390536115899796
100,18.60603220388738
101,18.51463135986386
102,18.60603220388738
103,18.00551765335014
104,18.497824514810799
2,2,12,16, 0,24, 0.00,60.00,Saturday
98,18.028341074386885
99,4.773673895626909
100,18.5520678599953
101,18.45803174937527
102,18.5520678599953
103,17.93277482592296
104,18.423063654288389
2,3,12,17, 0, 1, 0.00,60.00,Sunday
98,17.98044435966116
99,4.210646713117929
100,18.47149824759099
101,18.374543803314084
102,18.471498247590995
103,17.84760518459523
104,18.338884585958387
2,3,12,17, 0, 2, 0.00,60.00,Sunday
98,17.938624544669709
99,4.042296202597432
100,18.409707883246637
101,18.311424544208366
102,18.40970788324664
103,17.77756903078905
104,18.287600427672058
2,3,12,17, 0, 3, 0.00,60.00,Sunday
98,17.90946353335269
99,4.019087621590529
100,18.37283544009712
101,18.274221092518123
102,18.37283544009712
103,17.722946372511573
104,18.256706889366645
2,3,12,17, 0, 4, 0.00,60.00,Sunday
98,17.87946899344377
99,3.6543524094717365
100,18.328871354415438
101,18.229012394999047
102,18.328871354415438
103,17.660559498973137
104,18.20208749801029
2,3,12,17, 0, 5, 0.00,60.00,Sunday
98,17.835713966304849
99,3.084552724682633
100,18.25791442825082
101,18.155606076506655
102,18.25791442825082
103,17.580685658924634
104,18.121741562144775
2,3,12,17, 0, 6, 0.00,60.00,Sunday
98,17.801457696659225
99,3.261169246340785
100,18.215513936060526
101,18.11283791481614
102,18.215513936060526
103,17.52682981517644
104,18.09964690795799
2,3,12,17, 0, 7, 0.00,60.00,Sunday
98,17.801864175057856
99,3.9140338091873354
100,18.240080906372844
101,18.13972353302181
102,18.240080906372844
103,17.51962465602406
104,18.141207545799437
2,3,12,17, 0, 8, 0.00,60.00,Sunday
98,17.840701379028375
99,4.058183728284679
100,18.310271734716836
101,18.212225463780205
102,18.31027173471683
103,17.552872017208288
104,18.211758792036077
2,3,12,17, 0, 9, 0.00,60.00,Sunday
98,18.018328717581367
99,3.807069240353343
100,18.552104546181199
101,18.458611745772655
102,18.552104546181196
103,17.73996028455314
104,18.450550576566355
2,3,12,17, 0,10, 0.00,60.00,Sunday
98,18.40252590711782
99,3.9347701507040635
100,19.061584809971565
101,18.97595625309275
102,19.061584809971565
103,18.14264440815815
104,18.91304552837948
2,3,12,17, 0,11, 0.00,60.00,Sunday
98,18.66031953986577
99,4.387005511512882
100,19.395828084752695
101,19.310883044477298
102,19.395828084752695
103,18.401158942156774
104,19.11847086296518
2,3,12,17, 0,12, 0.00,60.00,Sunday
98,18.843099832005323
99,4.738061890025231
100,19.63357031967988
101,19.549462674871284
102,19.63357031967988
103,18.642667211952973
104,19.32328378383813
2,3,12,17, 0,13, 0.00,60.00,Sunday
98,19.01613337860666
99,4.385389931031871
100,19.834859665505069
101,19.750680295146304
102,19.834859665505069
103,18.871800493110233
104,19.478175682155365
2,3,12,17, 0,14, 0.00,60.00,Sunday
98,19.014368895338519
99,3.798981320061074
100,19.783403127107325
101,19.693462337614297
102,19.783403127107325
103,18.904523890157937
104,19.372187312857247
2,3,12,17, 0,15, 0.00,60.00,Sunday
98,18.878641489534343
99,3.689180829681277
100,19.569306213482819
101,19.474570968943437
102,19.569306213482819
103,18.823362649435287
104,19.191866695477758
2,3,12,17, 0,16, 0.00,60.00,Sunday
98,18.63984151138118
99,3.0079688175407477
100,19.21791926923585
101,19.11757678674769
102,19.21791926923585
103,18.61133771730449
104,18.873760057322806
2,3,12,17, 0,17, 0.00,60.00,Sunday
98,18.304605189154019
99,2.651984378269949
100,18.746946552726216
101,18.64071767548988
102,18.746946552726216
103,18.283093170779297
104,18.48802484781766
2,3,12,17, 0,18, 0.00,60.00,Sunday
98,18.11317871298797
99,3.1043046323143246
100,18.50614949604804
101,18.402501752803585
102,18.506149496048044
103,18.106143800969457
104,18.377691578000524
2,3,12,17, 0,19, 0.00,60.00,Sunday
98,18.029458813505554
99,3.0876269683210659
100,18.404371072875184
101,18.302922062738863
102,18.40437107287519
103,17.981703387344948
104,18.302227724856999
2,3,12,17, 0,20, 0.00,60.00,Sunday
98,17.949274983799716
99,2.132842669925433
100,18.283757085915548
101,18.179878807769528
102,18.28375708591555
103,17.826163309702875
104,18.153957413587795
2,3,12,17, 0,21, 0.00,60.00,Sunday
98,17.867750032555393
99,1.872719276197491
100,18.168095357175777
101,18.061921089201197
102,18.168095357175777
103,17.68274462321276
104,18.0509382246378
2,3,12,17, 0,22, 0.00,60.00,Sunday
98,17.81171686333182
99,1.5201289137729078
100,18.095709361359036
101,17.98836849524165
102,18.095709361359036
103,17.565873250535476
104,17.971311977442438
2,3,12,17, 0,23, 0.00,60.00,Sunday
98,17.75592201240762
99,1.5608518419232478
100,18.027883092365575
101,17.919424796278056
102,18.027883092365575
103,17.45881624756598
104,17.913219572036124
2,3,12,17, 0,24, 0.00,60.00,Sunday
98,17.733665247147319
99,2.0227929919597615
100,18.02495511779728
101,17.917925220218974
102,18.02495511779728
103,17.401570129968449
104,17.91871232284708
2,4,12,18, 0, 1, 0.00,60.00,Monday
98,17.711733911116075
99,1.918746621964279
100,18.011189338500249
101,17.90388934235024
102,18.011189338500249
103,17.338563578834106
104,17.88812435621352
2,4,12,18, 0, 2, 0.00,60.00,Monday
98,17.689623760906579
99,2.1472517097261156
100,17.999247298489416
101,17.8919340330209
102,17.999247298489416
103,17.289321022174858
104,17.88111524710465
2,4,12,18, 0, 3, 0.00,60.00,Monday
98,17.674038194310755
99,2.0144190069040066
100,17.99253782090547
101,17.884993267064659
102,17.99253782090547
103,17.246314721051254
104,17.860866987057709
2,4,12,18, 0, 4, 0.00,60.00,Monday
98,17.629772128793197
99,1.1701689044521023
100,17.923906874694635
101,17.81312828941182
102,17.923906874694635
103,17.16294463492166
104,17.76833758752097
2,4,12,18, 0, 5, 0.00,60.00,Monday
98,17.572258842716154
99,0.665467011809009
100,17.839033199563486
101,17.725426779807603
102,17.839033199563486
103,17.075610918836025
104,17.687873862356935
2,4,12,18, 0, 6, 0.00,60.00,Monday
98,17.525075921819064
99,0.4667332835418752
100,17.779732759093215
101,17.664933972582476
102,17.779732759093215
103,17.005438862669555
104,17.63721374880267
2,4,12,18, 0, 7, 0.00,60.00,Monday
98,17.483138606706424
99,0.24903519266709396
100,17.730228586810165
101,17.614421955856878
102,17.730228586810168
103,16.939457618911815
104,17.588650106126559
2,4,12,18, 0, 8, 0.00,60.00,Monday
98,17.527024151520388
99,0.7160354256007319
100,17.815575059643295
101,17.703222900666409
102,17.815575059643295
103,16.993681270470295
104,17.71824078452165
2,4,12,18, 0, 9, 0.00,60.00,Monday
98,17.76811575169241
99,1.325277291064026
100,18.17382074270056
101,18.069868122888665
102,18.17382074270056
103,17.257134725284826
104,18.06190722936059
2,4,12,18, 0,10, 0.00,60.00,Monday
98,18.034400502877295
99,1.9496668973959004
100,18.554165951222094
101,18.4555150494182
102,18.554165951222094
103,17.540593528078629
104,18.368233415903558
2,4,12,18, 0,11, 0.00,60.00,Monday
98,18.279380217606485
99,2.649405167600918
100,18.902563667108109
101,18.80775050920735
102,18.90256366710811
103,17.829149593793927
104,18.65337022724437
2,4,12,18, 0,12, 0.00,60.00,Monday
98,18.480478050332385
99,3.4222094689521898
100,19.18815750186313
101,19.096191268959858
102,19.18815750186314
103,18.09750638357594
104,18.895647373566005
2,4,12,18, 0,13, 0.00,60.00,Monday
98,18.622710101422798
99,4.031313835871326
100,19.389261675443909
101,19.29907464587253
102,19.389261675443909
103,18.318872679341465
104,19.064667623175735
2,4,12,18, 0,14, 0.00,60.00,Monday
98,18.693480889519234
99,4.556110832748051
100,19.487650397950973
101,19.398087870774768
102,19.487650397950977
103,18.473289306317704
104,19.153338584427858
2,4,12,18, 0,15, 0.00,60.00,Monday
98,18.666469722896104
99,4.536803347906575
100,19.441032368844657
101,19.34954512478026
102,19.44103236884466
103,18.5133001108839
104,19.095519382609763
2,4,12,18, 0,16, 0.00,60.00,Monday
98,18.503160904275828
99,4.072997929168461
100,19.196049760687463
101,19.09924021568045
102,19.196049760687463
103,18.394094349858919
104,18.860962992012757
2,4,12,18, 0,17, 0.00,60.00,Monday
98,18.20629869181712
99,3.5584379922911659
100,18.774937896154488
101,18.671606741312549
102,18.774937896154488
103,18.12379497891231
104,18.49949340542705
2,4,12,18, 0,18, 0.00,60.00,Monday
98,18.00543576960653
99,2.9834085360340625
100,18.489943394626775
101,18.3853958408279
102,18.48994339462678
103,17.942132375772514
104,18.319491313230569
2,4,12,18, 0,19, 0.00,60.00,Monday
98,17.899615234228024
99,2.7663867288038945
100,18.3374856853961
101,18.23325062837503
102,18.337485685396094
103,17.813338628867219
104,18.216625640287054
2,4,12,18, 0,20, 0.00,60.00,Monday
98,17.844093997895496
99,2.918456803804588
100,18.269619083518614
101,18.16658472810828
102,18.269619083518614
103,17.722606532348534
104,18.167313471244368
2,4,12,18, 0,21, 0.00,60.00,Monday
98,17.796651208980959
99,2.423663632348223
100,18.203366797768426
101,18.09925108963137
102,18.203366797768426
103,17.622303079596418
104,18.081362547186229
2,4,12,18, 0,22, 0.00,60.00,Monday
98,17.72804673592341
99,1.452308011872077
100,18.090901437796047
101,17.982913872034279
102,18.090901437796047
103,17.490796298259565
104,17.947828747044786
2,4,12,18, 0,23, 0.00,60.00,Monday
98,17.65635045008422
99,1.0329548848938828
100,17.984774208435725
101,17.874062319145386
102,17.984774208435725
103,17.36977752855873
104,17.8499176764354
2,4,12,18, 0,24, 0.00,60.00,Monday
98,17.600765671486398
99,0.8271597563889751
100,17.913615832721086
101,17.801740655282989
102,17.91361583272108
103,17.27118444430484
104,17.78305122126407
2,5,12,19, 0, 1, 0.00,60.00,Tuesday
98,17.545408480570303
99,0.3987421409446957
100,17.840538892480294
101,17.72685490914789
102,17.84053889248029
103,17.169318290546295
104,17.702341756322338
2,5,12,19, 0, 2, 0.00,60.00,Tuesday
98,17.489913044614324
99,0.09702178868417377
100,17.769919239673638
101,17.654528438771754
102,17.76991923967363
103,17.072434438832976
104,17.63146454017681
2,5,12,19, 0, 3, 0.00,60.00,Tuesday
98,17.43714532272118
99,-0.2858353969844056
100,17.7043450008839
101,17.587293278938814
102,17.7043450008839
103,16.97964833625965
104,17.560440505089806
2,5,12,19, 0, 4, 0.00,60.00,Tuesday
98,17.38013215511592
99,-0.7076834829505572
100,17.63151587667123
101,17.51243175780512
102,17.63151587667123
103,16.883787559446124
104,17.48385277636378
2,5,12,19, 0, 5, 0.00,60.00,Tuesday
98,17.32914203398379
99,-0.8550245454750799
100,17.574181818646545
101,17.453944229171893
102,17.574181818646549
103,16.801993658931094
104,17.43153760406511
2,5,12,19, 0, 6, 0.00,60.00,Tuesday
98,17.291139747128775
99,-0.76706210825292
100,17.543018048212198
101,17.42265338560714
102,17.5430180482122
103,16.740614674342259
104,17.406338753932109
2,5,12,19, 0, 7, 0.00,60.00,Tuesday
98,17.2542077950277
99,-1.092888575351547
100,17.507313799860527
101,17.385932771878698
102,17.50731379986052
103,16.6751213635731
104,17.357638919586177
2,5,12,19, 0, 8, 0.00,60.00,Tuesday
98,17.257733156304185
99,-1.4617665811877033
100,17.52326999643166
101,17.402031879623036
102,17.52326999643166
103,16.667991546612404
104,17.39026645643682
2,5,12,19, 0, 9, 0.00,60.00,Tuesday
98,17.428300025461245
99,-0.6295743337997806
100,17.787289606663824
101,17.67272238326562
102,17.787289606663824
103,16.859246184983303
104,17.667566370992338
2,5,12,19, 0,10, 0.00,60.00,Tuesday
98,17.66407895339273
99,0.4775212079785452
100,18.149075869879419
101,18.041716846592146
102,18.149075869879419
103,17.121583745749694
104,17.982245239213606
2,5,12,19, 0,11, 0.00,60.00,Tuesday
98,17.892526506721017
99,1.8714083759390879
100,18.50087387551603
101,18.399482187323966
102,18.50087387551603
103,17.400251453830508
104,18.29077923217623
2,5,12,19, 0,12, 0.00,60.00,Tuesday
98,18.101820155524679
99,2.764536026199105
100,18.817708642652616
101,18.721069588742144
102,18.817708642652616
103,17.67934027128457
104,18.562983592144375
2,5,12,19, 0,13, 0.00,60.00,Tuesday
98,18.361546914908819
99,3.2603235806131845
100,19.1783126621055
101,19.08652359902595
102,19.1783126621055
103,18.023808112202535
104,18.892399671190913
2,5,12,19, 0,14, 0.00,60.00,Tuesday
98,18.470996071310105
99,3.7406523068984165
100,19.32276207605083
101,19.229996193176196
102,19.32276207605083
103,18.194782800644945
104,18.96036230074332
2,5,12,19, 0,15, 0.00,60.00,Tuesday
98,18.40824200811889
99,3.913425142487976
100,19.231447514483766
101,19.135234282233534
102,19.231447514483773
103,18.209756704338404
104,18.868209032223004
2,5,12,19, 0,16, 0.00,60.00,Tuesday
98,18.226177013851737
99,3.4826301098138026
100,18.966023887214118
101,18.86481354626723
102,18.966023887214136
103,18.08805754219165
104,18.634372355725334
2,5,12,19, 0,17, 0.00,60.00,Tuesday
98,17.955556505943134
99,2.8559811783658426
100,18.5765106206852
101,18.469548652421616
102,18.576510620685217
103,17.849462588283033
104,18.30798385712248
2,5,12,19, 0,18, 0.00,60.00,Tuesday
98,17.777482646952945
99,2.4323699908589355
100,18.32203262588418
101,18.214329701508658
102,18.322032625884185
103,17.693594775482976
104,18.154996750157208
2,5,12,19, 0,19, 0.00,60.00,Tuesday
98,17.675310932116486
99,1.7003214223062838
100,18.162735811470744
101,18.05399305678284
102,18.16273581147074
103,17.561337347474898
104,18.021849700960286
2,5,12,19, 0,20, 0.00,60.00,Tuesday
98,17.589593758366175
99,0.9740647794100047
100,18.027238752394426
101,17.91626917252526
102,18.027238752394426
103,17.4255633320034
104,17.889054882269514
2,5,12,19, 0,21, 0.00,60.00,Tuesday
98,17.50588496356873
99,0.1489692470966304
100,17.89577397584192
101,17.78174341149694
102,17.89577397584192
103,17.283541284177188
104,17.75200878570985
2,5,12,19, 0,22, 0.00,60.00,Tuesday
98,17.43357959996135
99,-0.08254489956359142
100,17.79376819126201
101,17.67790770428984
102,17.793768191262008
103,17.1620771292846
104,17.66439666876684
2,5,12,19, 0,23, 0.00,60.00,Tuesday
98,17.391344438119295
99,0.18825480158128964
100,17.754622722706775
101,17.639303567915964
102,17.754622722706775
103,17.083012944886993
104,17.637212832724975
2,5,12,19, 0,24, 0.00,60.00,Tuesday
98,17.349693907332737
99,-0.27613094956091308
100,17.706189280599415
101,17.589586748616509
102,17.706189280599415
103,16.993082145559599
104,17.566060818436406
2,6,12,20, 0, 1, 0.00,60.00,Wednesday
98,17.287857444285895
99,-0.8881647655311346
100,17.62002062611948
101,17.500458591405047
102,17.62002062611948
103,16.88357458928497
104,17.46960550548119
2,6,12,20, 0, 2, 0.00,60.00,Wednesday
98,17.229495880934445
99,-1.2080595700302202
100,17.546724499554754
101,17.425318483637793
102,17.54672449955475
103,16.78770059667089
104,17.399119496626594
2,6,12,20, 0, 3, 0.00,60.00,Wednesday
98,17.181273559436794
99,-1.3612406405724187
100,17.494589904470709
101,17.372239570958976
102,17.494589904470709
103,16.707482533938188
104,17.348953284693829
2,6,12,20, 0, 4, 0.00,60.00,Wednesday
98,17.134676020295968
99,-1.5590023519946026
100,17.44448887006198
101,17.321011679325996
102,17.44448887006198
103,16.629984955266566
104,17.2974171618262
2,6,12,20, 0, 5, 0.00,60.00,Wednesday
98,17.098737212101093
99,-1.4207195885863467
100,17.417331521946584
101,17.293780083813524
102,17.417331521946584
103,16.57322763129868
104,17.277550485317
2,6,12,20, 0, 6, 0.00,60.00,Wednesday
98,17.07210821667833
99,-1.4354612306895452
100,17.402826078332116
101,17.27923371692928
102,17.402826078332116
103,16.526348625248454
104,17.25801998273032
2,6,12,20, 0, 7, 0.00,60.00,Wednesday
98,17.038915364402329
99,-1.6865944745296038
100,17.371494128538875
101,17.24679498657351
102,17.371494128538868
103,16.471147559951313
104,17.217982003396938
2,6,12,20, 0, 8, 0.00,60.00,Wednesday
98,17.061512777035984
99,-1.7954764486240909
100,17.419743147050715
101,17.296398885053013
102,17.41974314705072
103,16.495874623818815
104,17.290520212823045
2,6,12,20, 0, 9, 0.00,60.00,Wednesday
98,17.271145579715144
99,-1.6616950994065765
100,17.722575789117906
101,17.60550972012155
102,17.722575789117909
103,16.72417409904905
104,17.582986672475806
2,6,12,20, 0,10, 0.00,60.00,Wednesday
98,17.538954219865564
99,-0.41619954097348
100,18.117119294293933
101,18.007023221220636
102,18.11711929429394
103,17.024728388628075
104,17.935324478869846
2,6,12,20, 0,11, 0.00,60.00,Wednesday
98,17.85414883719072
99,1.4841212827861153
100,18.596753602158818
101,18.495977773274807
102,18.596753602158825
103,17.415119647185035
104,18.378519046868246
2,6,12,20, 0,12, 0.00,60.00,Wednesday
98,18.15698757581617
99,2.2386194506002066
100,19.032189768374747
101,18.93703432447221
102,19.032189768374754
103,17.794132725742196
104,18.73086895945917
2,6,12,20, 0,13, 0.00,60.00,Wednesday
98,18.364294968805976
99,2.128279157682234
100,19.297236694236735
101,19.201740521755295
102,19.297236694236735
103,18.072192189079546
104,18.910975866456366
2,6,12,20, 0,14, 0.00,60.00,Wednesday
98,18.39036693103162
99,2.1189194386272356
100,19.309332252698657
101,19.209899373316689
102,19.30933225269866
103,18.176131882865069
104,18.887137420548965
2,6,12,20, 0,15, 0.00,60.00,Wednesday
98,18.346026241747376
99,2.400808013147639
100,19.235350259542864
101,19.13439258630483
102,19.235350259542864
103,18.22766097380921
104,18.853099659585327
2,6,12,20, 0,16, 0.00,60.00,Wednesday
98,18.159977415298394
99,1.9979029964284128
100,18.960380739170465
101,18.854291660038198
102,18.960380739170465
103,18.09005466110881
104,18.581829370692295
2,6,12,20, 0,17, 0.00,60.00,Wednesday
98,17.805427917621239
99,0.8410318117528656
100,18.443533354322637
101,18.328388244552767
102,18.443533354322637
103,17.75136188925341
104,18.12092438789023
2,6,12,20, 0,18, 0.00,60.00,Wednesday
98,17.561733587470618
99,0.22029294406904874
100,18.091910329777606
101,17.974813973572045
102,18.091910329777606
103,17.524463884052964
104,17.90395542116546
2,6,12,20, 0,19, 0.00,60.00,Wednesday
98,17.429549887180547
99,-0.4822098327865281
100,17.894308215611784
101,17.776676252145774
102,17.894308215611784
103,17.351440398320709
104,17.74770108489152
2,6,12,20, 0,20, 0.00,60.00,Wednesday
98,17.337725668096569
99,-0.6049329055748179
100,17.764821266020975
101,17.646716871658673
102,17.76482126602097
103,17.204522417531764
104,17.64344740413641
2,6,12,20, 0,21, 0.00,60.00,Wednesday
98,17.30308263247787
99,0.325406454904235
100,17.747731275097864
101,17.63260632555428
102,17.747731275097864
103,17.132968031775304
104,17.65677563768236
2,6,12,20, 0,22, 0.00,60.00,Wednesday
98,17.33313338996337
99,2.107708110561248
100,17.847030655720599
101,17.73810151902383
102,17.847030655720599
103,17.148404697166737
104,17.78502276565503
2,6,12,20, 0,23, 0.00,60.00,Wednesday
98,17.39908009897439
99,3.3695368389605089
100,17.993584915352718
101,17.89033589573525
102,17.993584915352718
103,17.202652828171059
104,17.916160818630759
2,6,12,20, 0,24, 0.00,60.00,Wednesday
98,17.442696457171509
99,3.4362861481686766
100,18.072637050634574
101,17.970362105096837
102,18.072637050634574
103,17.223029741429074
104,17.953216487821974
2,7,12,21, 0, 1, 0.00,60.00,Thursday
98,17.465421447447747
99,3.720116424464569
100,18.11018125077118
101,18.00798995503641
102,18.110181250771185
103,17.237472430480748
104,17.989073021589407
2,7,12,21, 0, 2, 0.00,60.00,Thursday
98,17.497443858543908
99,4.0945241885271559
100,18.161997282345835
101,18.061133501113916
102,18.161997282345835
103,17.27068652805299
104,18.042423253464766
2,7,12,21, 0, 3, 0.00,60.00,Thursday
98,17.532863925616455
99,4.4598435145855339
100,18.21390900995235
101,18.11443320391907
102,18.21390900995235
103,17.30937509215172
104,18.09578141383525
2,7,12,21, 0, 4, 0.00,60.00,Thursday
98,17.572234078818345
99,4.843597235962932
100,18.2683432362944
101,18.17038011122438
102,18.2683432362944
103,17.354679340990079
104,18.152650355426
2,7,12,21, 0, 5, 0.00,60.00,Thursday
98,17.61632803785879
99,5.250674488295469
100,18.32781818498584
101,18.231551736719046
102,18.32781818498584
103,17.407514506149533
104,18.214717662170469
2,7,12,21, 0, 6, 0.00,60.00,Thursday
98,17.6668040718048
99,5.788057801243601
100,18.397251770747997
101,18.303117677630764
102,18.397251770747997
103,17.471763198268808
104,18.290636194667415
2,7,12,21, 0, 7, 0.00,60.00,Thursday